v testName reno4
+ 0 0 2 tcp 40 ------- 0 0.0 3.0 0 0
- 0 0 2 tcp 40 ------- 0 0.0 3.0 0 0
r 0.002032 0 2 tcp 40 ------- 0 0.0 3.0 0 0
+ 0.144491 0 2 tcp 1000 ------- 0 0.0 3.0 1 2
- 0.144491 0 2 tcp 1000 ------- 0 0.0 3.0 1 2
+ 0.144491 0 2 tcp 1000 ------- 0 0.0 3.0 2 3
- 0.145291 0 2 tcp 1000 ------- 0 0.0 3.0 2 3
r 0.147291 0 2 tcp 1000 ------- 0 0.0 3.0 1 2
r 0.148091 0 2 tcp 1000 ------- 0 0.0 3.0 2 3
+ 0.200203 0 2 tcp 1000 ------- 0 0.0 3.0 3 5
- 0.200203 0 2 tcp 1000 ------- 0 0.0 3.0 3 5
+ 0.200203 0 2 tcp 1000 ------- 0 0.0 3.0 4 6
+ 0.200203 0 2 tcp 1000 ------- 0 0.0 3.0 5 7
- 0.201003 0 2 tcp 1000 ------- 0 0.0 3.0 4 6
- 0.201803 0 2 tcp 1000 ------- 0 0.0 3.0 5 7
r 0.203003 0 2 tcp 1000 ------- 0 0.0 3.0 3 5
r 0.203803 0 2 tcp 1000 ------- 0 0.0 3.0 4 6
r 0.204603 0 2 tcp 1000 ------- 0 0.0 3.0 5 7
+ 0.255915 0 2 tcp 1000 ------- 0 0.0 3.0 6 9
- 0.255915 0 2 tcp 1000 ------- 0 0.0 3.0 6 9
+ 0.255915 0 2 tcp 1000 ------- 0 0.0 3.0 7 10
+ 0.255915 0 2 tcp 1000 ------- 0 0.0 3.0 8 11
- 0.256715 0 2 tcp 1000 ------- 0 0.0 3.0 7 10
- 0.257515 0 2 tcp 1000 ------- 0 0.0 3.0 8 11
r 0.258715 0 2 tcp 1000 ------- 0 0.0 3.0 6 9
r 0.259515 0 2 tcp 1000 ------- 0 0.0 3.0 7 10
r 0.260315 0 2 tcp 1000 ------- 0 0.0 3.0 8 11
+ 0.306293 0 2 tcp 1000 ------- 0 0.0 3.0 9 14
- 0.306293 0 2 tcp 1000 ------- 0 0.0 3.0 9 14
+ 0.306293 0 2 tcp 1000 ------- 0 0.0 3.0 10 15
+ 0.306293 0 2 tcp 1000 ------- 0 0.0 3.0 11 16
- 0.307093 0 2 tcp 1000 ------- 0 0.0 3.0 10 15
- 0.307893 0 2 tcp 1000 ------- 0 0.0 3.0 11 16
r 0.309093 0 2 tcp 1000 ------- 0 0.0 3.0 9 14
r 0.309893 0 2 tcp 1000 ------- 0 0.0 3.0 10 15
r 0.310693 0 2 tcp 1000 ------- 0 0.0 3.0 11 16
+ 0.31696 0 2 tcp 1000 ------- 0 0.0 3.0 12 17
- 0.31696 0 2 tcp 1000 ------- 0 0.0 3.0 12 17
+ 0.31696 0 2 tcp 1000 ------- 0 0.0 3.0 13 18
+ 0.31696 0 2 tcp 1000 ------- 0 0.0 3.0 14 19
- 0.31776 0 2 tcp 1000 ------- 0 0.0 3.0 13 18
- 0.31856 0 2 tcp 1000 ------- 0 0.0 3.0 14 19
r 0.31976 0 2 tcp 1000 ------- 0 0.0 3.0 12 17
r 0.32056 0 2 tcp 1000 ------- 0 0.0 3.0 13 18
r 0.32136 0 2 tcp 1000 ------- 0 0.0 3.0 14 19
+ 0.362005 0 2 tcp 1000 ------- 0 0.0 3.0 15 23
- 0.362005 0 2 tcp 1000 ------- 0 0.0 3.0 15 23
+ 0.362005 0 2 tcp 1000 ------- 0 0.0 3.0 16 24
+ 0.362005 0 2 tcp 1000 ------- 0 0.0 3.0 17 25
- 0.362805 0 2 tcp 1000 ------- 0 0.0 3.0 16 24
- 0.363605 0 2 tcp 1000 ------- 0 0.0 3.0 17 25
r 0.364805 0 2 tcp 1000 ------- 0 0.0 3.0 15 23
r 0.365605 0 2 tcp 1000 ------- 0 0.0 3.0 16 24
r 0.366405 0 2 tcp 1000 ------- 0 0.0 3.0 17 25
+ 0.372672 0 2 tcp 1000 ------- 0 0.0 3.0 18 26
- 0.372672 0 2 tcp 1000 ------- 0 0.0 3.0 18 26
+ 0.372672 0 2 tcp 1000 ------- 0 0.0 3.0 19 27
+ 0.372672 0 2 tcp 1000 ------- 0 0.0 3.0 20 28
- 0.373472 0 2 tcp 1000 ------- 0 0.0 3.0 19 27
- 0.374272 0 2 tcp 1000 ------- 0 0.0 3.0 20 28
r 0.375472 0 2 tcp 1000 ------- 0 0.0 3.0 18 26
r 0.376272 0 2 tcp 1000 ------- 0 0.0 3.0 19 27
r 0.377072 0 2 tcp 1000 ------- 0 0.0 3.0 20 28
+ 0.383339 0 2 tcp 1000 ------- 0 0.0 3.0 21 29
- 0.383339 0 2 tcp 1000 ------- 0 0.0 3.0 21 29
+ 0.383339 0 2 tcp 1000 ------- 0 0.0 3.0 22 30
+ 0.383339 0 2 tcp 1000 ------- 0 0.0 3.0 23 31
- 0.384139 0 2 tcp 1000 ------- 0 0.0 3.0 22 30
- 0.384939 0 2 tcp 1000 ------- 0 0.0 3.0 23 31
r 0.386139 0 2 tcp 1000 ------- 0 0.0 3.0 21 29
r 0.386939 0 2 tcp 1000 ------- 0 0.0 3.0 22 30
r 0.387739 0 2 tcp 1000 ------- 0 0.0 3.0 23 31
+ 0.417717 0 2 tcp 1000 ------- 0 0.0 3.0 24 35
- 0.417717 0 2 tcp 1000 ------- 0 0.0 3.0 24 35
+ 0.417717 0 2 tcp 1000 ------- 0 0.0 3.0 25 36
+ 0.417717 0 2 tcp 1000 ------- 0 0.0 3.0 26 37
- 0.418517 0 2 tcp 1000 ------- 0 0.0 3.0 25 36
- 0.419317 0 2 tcp 1000 ------- 0 0.0 3.0 26 37
r 0.420517 0 2 tcp 1000 ------- 0 0.0 3.0 24 35
r 0.421317 0 2 tcp 1000 ------- 0 0.0 3.0 25 36
r 0.422117 0 2 tcp 1000 ------- 0 0.0 3.0 26 37
+ 0.428384 0 2 tcp 1000 ------- 0 0.0 3.0 27 39
- 0.428384 0 2 tcp 1000 ------- 0 0.0 3.0 27 39
+ 0.428384 0 2 tcp 1000 ------- 0 0.0 3.0 28 40
+ 0.428384 0 2 tcp 1000 ------- 0 0.0 3.0 29 41
- 0.429184 0 2 tcp 1000 ------- 0 0.0 3.0 28 40
- 0.429984 0 2 tcp 1000 ------- 0 0.0 3.0 29 41
r 0.431184 0 2 tcp 1000 ------- 0 0.0 3.0 27 39
r 0.431984 0 2 tcp 1000 ------- 0 0.0 3.0 28 40
r 0.432784 0 2 tcp 1000 ------- 0 0.0 3.0 29 41
+ 0.439051 0 2 tcp 1000 ------- 0 0.0 3.0 30 42
- 0.439051 0 2 tcp 1000 ------- 0 0.0 3.0 30 42
+ 0.439051 0 2 tcp 1000 ------- 0 0.0 3.0 31 43
+ 0.439051 0 2 tcp 1000 ------- 0 0.0 3.0 32 44
- 0.439851 0 2 tcp 1000 ------- 0 0.0 3.0 31 43
- 0.440651 0 2 tcp 1000 ------- 0 0.0 3.0 32 44
r 0.441851 0 2 tcp 1000 ------- 0 0.0 3.0 30 42
r 0.442651 0 2 tcp 1000 ------- 0 0.0 3.0 31 43
r 0.443451 0 2 tcp 1000 ------- 0 0.0 3.0 32 44
+ 0.449717 0 2 tcp 1000 ------- 0 0.0 3.0 33 46
- 0.449717 0 2 tcp 1000 ------- 0 0.0 3.0 33 46
+ 0.449717 0 2 tcp 1000 ------- 0 0.0 3.0 34 47
+ 0.449717 0 2 tcp 1000 ------- 0 0.0 3.0 35 48
- 0.450517 0 2 tcp 1000 ------- 0 0.0 3.0 34 47
- 0.451317 0 2 tcp 1000 ------- 0 0.0 3.0 35 48
r 0.452517 0 2 tcp 1000 ------- 0 0.0 3.0 33 46
r 0.453317 0 2 tcp 1000 ------- 0 0.0 3.0 34 47
r 0.454117 0 2 tcp 1000 ------- 0 0.0 3.0 35 48
+ 0.468096 0 2 tcp 1000 ------- 0 0.0 3.0 36 51
- 0.468096 0 2 tcp 1000 ------- 0 0.0 3.0 36 51
+ 0.468096 0 2 tcp 1000 ------- 0 0.0 3.0 37 52
+ 0.468096 0 2 tcp 1000 ------- 0 0.0 3.0 38 53
- 0.468896 0 2 tcp 1000 ------- 0 0.0 3.0 37 52
- 0.469696 0 2 tcp 1000 ------- 0 0.0 3.0 38 53
r 0.470896 0 2 tcp 1000 ------- 0 0.0 3.0 36 51
r 0.471696 0 2 tcp 1000 ------- 0 0.0 3.0 37 52
r 0.472496 0 2 tcp 1000 ------- 0 0.0 3.0 38 53
+ 0.478763 0 2 tcp 1000 ------- 0 0.0 3.0 39 55
- 0.478763 0 2 tcp 1000 ------- 0 0.0 3.0 39 55
+ 0.478763 0 2 tcp 1000 ------- 0 0.0 3.0 40 56
+ 0.478763 0 2 tcp 1000 ------- 0 0.0 3.0 41 57
- 0.479563 0 2 tcp 1000 ------- 0 0.0 3.0 40 56
- 0.480363 0 2 tcp 1000 ------- 0 0.0 3.0 41 57
r 0.481563 0 2 tcp 1000 ------- 0 0.0 3.0 39 55
r 0.482363 0 2 tcp 1000 ------- 0 0.0 3.0 40 56
r 0.483163 0 2 tcp 1000 ------- 0 0.0 3.0 41 57
+ 0.489429 0 2 tcp 1000 ------- 0 0.0 3.0 42 59
- 0.489429 0 2 tcp 1000 ------- 0 0.0 3.0 42 59
+ 0.489429 0 2 tcp 1000 ------- 0 0.0 3.0 43 60
+ 0.489429 0 2 tcp 1000 ------- 0 0.0 3.0 44 61
- 0.490229 0 2 tcp 1000 ------- 0 0.0 3.0 43 60
- 0.491029 0 2 tcp 1000 ------- 0 0.0 3.0 44 61
r 0.492229 0 2 tcp 1000 ------- 0 0.0 3.0 42 59
r 0.493029 0 2 tcp 1000 ------- 0 0.0 3.0 43 60
r 0.493829 0 2 tcp 1000 ------- 0 0.0 3.0 44 61
+ 0.500096 0 2 tcp 1000 ------- 0 0.0 3.0 45 63
- 0.500096 0 2 tcp 1000 ------- 0 0.0 3.0 45 63
+ 0.500096 0 2 tcp 1000 ------- 0 0.0 3.0 46 64
+ 0.500096 0 2 tcp 1000 ------- 0 0.0 3.0 47 65
- 0.500896 0 2 tcp 1000 ------- 0 0.0 3.0 46 64
- 0.501696 0 2 tcp 1000 ------- 0 0.0 3.0 47 65
r 0.502896 0 2 tcp 1000 ------- 0 0.0 3.0 45 63
r 0.503696 0 2 tcp 1000 ------- 0 0.0 3.0 46 64
r 0.504496 0 2 tcp 1000 ------- 0 0.0 3.0 47 65
+ 0.510763 0 2 tcp 1000 ------- 0 0.0 3.0 48 67
- 0.510763 0 2 tcp 1000 ------- 0 0.0 3.0 48 67
+ 0.510763 0 2 tcp 1000 ------- 0 0.0 3.0 49 68
+ 0.510763 0 2 tcp 1000 ------- 0 0.0 3.0 50 69
- 0.511563 0 2 tcp 1000 ------- 0 0.0 3.0 49 68
- 0.512363 0 2 tcp 1000 ------- 0 0.0 3.0 50 69
r 0.513563 0 2 tcp 1000 ------- 0 0.0 3.0 48 67
r 0.514363 0 2 tcp 1000 ------- 0 0.0 3.0 49 68
r 0.515163 0 2 tcp 1000 ------- 0 0.0 3.0 50 69
+ 0.521429 0 2 tcp 1000 ------- 0 0.0 3.0 51 71
- 0.521429 0 2 tcp 1000 ------- 0 0.0 3.0 51 71
+ 0.521429 0 2 tcp 1000 ------- 0 0.0 3.0 52 72
+ 0.521429 0 2 tcp 1000 ------- 0 0.0 3.0 53 73
- 0.522229 0 2 tcp 1000 ------- 0 0.0 3.0 52 72
- 0.523029 0 2 tcp 1000 ------- 0 0.0 3.0 53 73
r 0.524229 0 2 tcp 1000 ------- 0 0.0 3.0 51 71
r 0.525029 0 2 tcp 1000 ------- 0 0.0 3.0 52 72
r 0.525829 0 2 tcp 1000 ------- 0 0.0 3.0 53 73
+ 0.532096 0 2 tcp 1000 ------- 0 0.0 3.0 54 75
- 0.532096 0 2 tcp 1000 ------- 0 0.0 3.0 54 75
+ 0.532096 0 2 tcp 1000 ------- 0 0.0 3.0 55 76
+ 0.532096 0 2 tcp 1000 ------- 0 0.0 3.0 56 77
- 0.532896 0 2 tcp 1000 ------- 0 0.0 3.0 55 76
- 0.533696 0 2 tcp 1000 ------- 0 0.0 3.0 56 77
r 0.534896 0 2 tcp 1000 ------- 0 0.0 3.0 54 75
r 0.535696 0 2 tcp 1000 ------- 0 0.0 3.0 55 76
r 0.536496 0 2 tcp 1000 ------- 0 0.0 3.0 56 77
+ 0.542763 0 2 tcp 1000 ------- 0 0.0 3.0 57 79
- 0.542763 0 2 tcp 1000 ------- 0 0.0 3.0 57 79
+ 0.542763 0 2 tcp 1000 ------- 0 0.0 3.0 58 80
+ 0.542763 0 2 tcp 1000 ------- 0 0.0 3.0 59 81
- 0.543563 0 2 tcp 1000 ------- 0 0.0 3.0 58 80
- 0.544363 0 2 tcp 1000 ------- 0 0.0 3.0 59 81
r 0.545563 0 2 tcp 1000 ------- 0 0.0 3.0 57 79
r 0.546363 0 2 tcp 1000 ------- 0 0.0 3.0 58 80
r 0.547163 0 2 tcp 1000 ------- 0 0.0 3.0 59 81
+ 0.553429 0 2 tcp 1000 ------- 0 0.0 3.0 60 83
- 0.553429 0 2 tcp 1000 ------- 0 0.0 3.0 60 83
+ 0.553429 0 2 tcp 1000 ------- 0 0.0 3.0 61 84
+ 0.553429 0 2 tcp 1000 ------- 0 0.0 3.0 62 85
- 0.554229 0 2 tcp 1000 ------- 0 0.0 3.0 61 84
- 0.555029 0 2 tcp 1000 ------- 0 0.0 3.0 62 85
r 0.556229 0 2 tcp 1000 ------- 0 0.0 3.0 60 83
r 0.557029 0 2 tcp 1000 ------- 0 0.0 3.0 61 84
r 0.557829 0 2 tcp 1000 ------- 0 0.0 3.0 62 85
+ 0.564096 0 2 tcp 1000 ------- 0 0.0 3.0 63 87
- 0.564096 0 2 tcp 1000 ------- 0 0.0 3.0 63 87
+ 0.564096 0 2 tcp 1000 ------- 0 0.0 3.0 64 88
+ 0.564096 0 2 tcp 1000 ------- 0 0.0 3.0 65 89
- 0.564896 0 2 tcp 1000 ------- 0 0.0 3.0 64 88
- 0.565696 0 2 tcp 1000 ------- 0 0.0 3.0 65 89
r 0.566896 0 2 tcp 1000 ------- 0 0.0 3.0 63 87
r 0.567696 0 2 tcp 1000 ------- 0 0.0 3.0 64 88
r 0.568496 0 2 tcp 1000 ------- 0 0.0 3.0 65 89
+ 0.574763 0 2 tcp 1000 ------- 0 0.0 3.0 66 91
- 0.574763 0 2 tcp 1000 ------- 0 0.0 3.0 66 91
+ 0.574763 0 2 tcp 1000 ------- 0 0.0 3.0 67 92
+ 0.574763 0 2 tcp 1000 ------- 0 0.0 3.0 68 93
- 0.575563 0 2 tcp 1000 ------- 0 0.0 3.0 67 92
- 0.576363 0 2 tcp 1000 ------- 0 0.0 3.0 68 93
r 0.577563 0 2 tcp 1000 ------- 0 0.0 3.0 66 91
r 0.578363 0 2 tcp 1000 ------- 0 0.0 3.0 67 92
r 0.579163 0 2 tcp 1000 ------- 0 0.0 3.0 68 93
+ 0.585429 0 2 tcp 1000 ------- 0 0.0 3.0 69 95
- 0.585429 0 2 tcp 1000 ------- 0 0.0 3.0 69 95
+ 0.585429 0 2 tcp 1000 ------- 0 0.0 3.0 70 96
+ 0.585429 0 2 tcp 1000 ------- 0 0.0 3.0 71 97
- 0.586229 0 2 tcp 1000 ------- 0 0.0 3.0 70 96
- 0.587029 0 2 tcp 1000 ------- 0 0.0 3.0 71 97
r 0.588229 0 2 tcp 1000 ------- 0 0.0 3.0 69 95
r 0.589029 0 2 tcp 1000 ------- 0 0.0 3.0 70 96
r 0.589829 0 2 tcp 1000 ------- 0 0.0 3.0 71 97
+ 0.596096 0 2 tcp 1000 ------- 0 0.0 3.0 72 99
- 0.596096 0 2 tcp 1000 ------- 0 0.0 3.0 72 99
+ 0.596096 0 2 tcp 1000 ------- 0 0.0 3.0 73 100
+ 0.596096 0 2 tcp 1000 ------- 0 0.0 3.0 74 101
- 0.596896 0 2 tcp 1000 ------- 0 0.0 3.0 73 100
- 0.597696 0 2 tcp 1000 ------- 0 0.0 3.0 74 101
r 0.598896 0 2 tcp 1000 ------- 0 0.0 3.0 72 99
r 0.599696 0 2 tcp 1000 ------- 0 0.0 3.0 73 100
r 0.600496 0 2 tcp 1000 ------- 0 0.0 3.0 74 101
+ 0.606763 0 2 tcp 1000 ------- 0 0.0 3.0 75 103
- 0.606763 0 2 tcp 1000 ------- 0 0.0 3.0 75 103
+ 0.606763 0 2 tcp 1000 ------- 0 0.0 3.0 76 104
+ 0.606763 0 2 tcp 1000 ------- 0 0.0 3.0 77 105
- 0.607563 0 2 tcp 1000 ------- 0 0.0 3.0 76 104
- 0.608363 0 2 tcp 1000 ------- 0 0.0 3.0 77 105
r 0.609563 0 2 tcp 1000 ------- 0 0.0 3.0 75 103
r 0.610363 0 2 tcp 1000 ------- 0 0.0 3.0 76 104
r 0.611163 0 2 tcp 1000 ------- 0 0.0 3.0 77 105
+ 0.617429 0 2 tcp 1000 ------- 0 0.0 3.0 78 107
- 0.617429 0 2 tcp 1000 ------- 0 0.0 3.0 78 107
+ 0.617429 0 2 tcp 1000 ------- 0 0.0 3.0 79 108
+ 0.617429 0 2 tcp 1000 ------- 0 0.0 3.0 80 109
- 0.618229 0 2 tcp 1000 ------- 0 0.0 3.0 79 108
- 0.619029 0 2 tcp 1000 ------- 0 0.0 3.0 80 109
r 0.620229 0 2 tcp 1000 ------- 0 0.0 3.0 78 107
r 0.621029 0 2 tcp 1000 ------- 0 0.0 3.0 79 108
r 0.621829 0 2 tcp 1000 ------- 0 0.0 3.0 80 109
+ 0.628096 0 2 tcp 1000 ------- 0 0.0 3.0 81 111
- 0.628096 0 2 tcp 1000 ------- 0 0.0 3.0 81 111
+ 0.628096 0 2 tcp 1000 ------- 0 0.0 3.0 82 112
+ 0.628096 0 2 tcp 1000 ------- 0 0.0 3.0 83 113
- 0.628896 0 2 tcp 1000 ------- 0 0.0 3.0 82 112
- 0.629696 0 2 tcp 1000 ------- 0 0.0 3.0 83 113
r 0.630896 0 2 tcp 1000 ------- 0 0.0 3.0 81 111
r 0.631696 0 2 tcp 1000 ------- 0 0.0 3.0 82 112
r 0.632496 0 2 tcp 1000 ------- 0 0.0 3.0 83 113
+ 0.638763 0 2 tcp 1000 ------- 0 0.0 3.0 84 115
- 0.638763 0 2 tcp 1000 ------- 0 0.0 3.0 84 115
+ 0.638763 0 2 tcp 1000 ------- 0 0.0 3.0 85 116
+ 0.638763 0 2 tcp 1000 ------- 0 0.0 3.0 86 117
- 0.639563 0 2 tcp 1000 ------- 0 0.0 3.0 85 116
- 0.640363 0 2 tcp 1000 ------- 0 0.0 3.0 86 117
r 0.641563 0 2 tcp 1000 ------- 0 0.0 3.0 84 115
r 0.642363 0 2 tcp 1000 ------- 0 0.0 3.0 85 116
r 0.643163 0 2 tcp 1000 ------- 0 0.0 3.0 86 117
+ 0.649429 0 2 tcp 1000 ------- 0 0.0 3.0 87 119
- 0.649429 0 2 tcp 1000 ------- 0 0.0 3.0 87 119
+ 0.649429 0 2 tcp 1000 ------- 0 0.0 3.0 88 120
+ 0.649429 0 2 tcp 1000 ------- 0 0.0 3.0 89 121
- 0.650229 0 2 tcp 1000 ------- 0 0.0 3.0 88 120
- 0.651029 0 2 tcp 1000 ------- 0 0.0 3.0 89 121
r 0.652229 0 2 tcp 1000 ------- 0 0.0 3.0 87 119
r 0.653029 0 2 tcp 1000 ------- 0 0.0 3.0 88 120
r 0.653829 0 2 tcp 1000 ------- 0 0.0 3.0 89 121
+ 0.660096 0 2 tcp 1000 ------- 0 0.0 3.0 90 123
- 0.660096 0 2 tcp 1000 ------- 0 0.0 3.0 90 123
+ 0.660096 0 2 tcp 1000 ------- 0 0.0 3.0 91 124
+ 0.660096 0 2 tcp 1000 ------- 0 0.0 3.0 92 125
- 0.660896 0 2 tcp 1000 ------- 0 0.0 3.0 91 124
- 0.661696 0 2 tcp 1000 ------- 0 0.0 3.0 92 125
r 0.662896 0 2 tcp 1000 ------- 0 0.0 3.0 90 123
r 0.663696 0 2 tcp 1000 ------- 0 0.0 3.0 91 124
r 0.664496 0 2 tcp 1000 ------- 0 0.0 3.0 92 125
+ 0.670763 0 2 tcp 1000 ------- 0 0.0 3.0 93 127
- 0.670763 0 2 tcp 1000 ------- 0 0.0 3.0 93 127
+ 0.670763 0 2 tcp 1000 ------- 0 0.0 3.0 94 128
+ 0.670763 0 2 tcp 1000 ------- 0 0.0 3.0 95 129
- 0.671563 0 2 tcp 1000 ------- 0 0.0 3.0 94 128
- 0.672363 0 2 tcp 1000 ------- 0 0.0 3.0 95 129
r 0.673563 0 2 tcp 1000 ------- 0 0.0 3.0 93 127
r 0.674363 0 2 tcp 1000 ------- 0 0.0 3.0 94 128
r 0.675163 0 2 tcp 1000 ------- 0 0.0 3.0 95 129
+ 0.681429 0 2 tcp 1000 ------- 0 0.0 3.0 96 131
- 0.681429 0 2 tcp 1000 ------- 0 0.0 3.0 96 131
+ 0.681429 0 2 tcp 1000 ------- 0 0.0 3.0 97 132
+ 0.681429 0 2 tcp 1000 ------- 0 0.0 3.0 98 133
- 0.682229 0 2 tcp 1000 ------- 0 0.0 3.0 97 132
- 0.683029 0 2 tcp 1000 ------- 0 0.0 3.0 98 133
r 0.684229 0 2 tcp 1000 ------- 0 0.0 3.0 96 131
r 0.685029 0 2 tcp 1000 ------- 0 0.0 3.0 97 132
r 0.685829 0 2 tcp 1000 ------- 0 0.0 3.0 98 133
+ 0.692096 0 2 tcp 1000 ------- 0 0.0 3.0 99 135
- 0.692096 0 2 tcp 1000 ------- 0 0.0 3.0 99 135
+ 0.692096 0 2 tcp 1000 ------- 0 0.0 3.0 100 136
+ 0.692096 0 2 tcp 1000 ------- 0 0.0 3.0 101 137
- 0.692896 0 2 tcp 1000 ------- 0 0.0 3.0 100 136
- 0.693696 0 2 tcp 1000 ------- 0 0.0 3.0 101 137
r 0.694896 0 2 tcp 1000 ------- 0 0.0 3.0 99 135
r 0.695696 0 2 tcp 1000 ------- 0 0.0 3.0 100 136
r 0.696496 0 2 tcp 1000 ------- 0 0.0 3.0 101 137
+ 0.702763 0 2 tcp 1000 ------- 0 0.0 3.0 102 139
- 0.702763 0 2 tcp 1000 ------- 0 0.0 3.0 102 139
+ 0.702763 0 2 tcp 1000 ------- 0 0.0 3.0 103 140
+ 0.702763 0 2 tcp 1000 ------- 0 0.0 3.0 104 141
- 0.703563 0 2 tcp 1000 ------- 0 0.0 3.0 103 140
- 0.704363 0 2 tcp 1000 ------- 0 0.0 3.0 104 141
r 0.705563 0 2 tcp 1000 ------- 0 0.0 3.0 102 139
r 0.706363 0 2 tcp 1000 ------- 0 0.0 3.0 103 140
r 0.707163 0 2 tcp 1000 ------- 0 0.0 3.0 104 141
+ 0.713429 0 2 tcp 1000 ------- 0 0.0 3.0 105 143
- 0.713429 0 2 tcp 1000 ------- 0 0.0 3.0 105 143
+ 0.713429 0 2 tcp 1000 ------- 0 0.0 3.0 106 144
+ 0.713429 0 2 tcp 1000 ------- 0 0.0 3.0 107 145
- 0.714229 0 2 tcp 1000 ------- 0 0.0 3.0 106 144
- 0.715029 0 2 tcp 1000 ------- 0 0.0 3.0 107 145
r 0.716229 0 2 tcp 1000 ------- 0 0.0 3.0 105 143
r 0.717029 0 2 tcp 1000 ------- 0 0.0 3.0 106 144
r 0.717829 0 2 tcp 1000 ------- 0 0.0 3.0 107 145
+ 0.724096 0 2 tcp 1000 ------- 0 0.0 3.0 108 147
- 0.724096 0 2 tcp 1000 ------- 0 0.0 3.0 108 147
+ 0.724096 0 2 tcp 1000 ------- 0 0.0 3.0 109 148
+ 0.724096 0 2 tcp 1000 ------- 0 0.0 3.0 110 149
- 0.724896 0 2 tcp 1000 ------- 0 0.0 3.0 109 148
- 0.725696 0 2 tcp 1000 ------- 0 0.0 3.0 110 149
r 0.726896 0 2 tcp 1000 ------- 0 0.0 3.0 108 147
r 0.727696 0 2 tcp 1000 ------- 0 0.0 3.0 109 148
r 0.728496 0 2 tcp 1000 ------- 0 0.0 3.0 110 149
+ 0.734763 0 2 tcp 1000 ------- 0 0.0 3.0 111 151
- 0.734763 0 2 tcp 1000 ------- 0 0.0 3.0 111 151
+ 0.734763 0 2 tcp 1000 ------- 0 0.0 3.0 112 152
+ 0.734763 0 2 tcp 1000 ------- 0 0.0 3.0 113 153
- 0.735563 0 2 tcp 1000 ------- 0 0.0 3.0 112 152
- 0.736363 0 2 tcp 1000 ------- 0 0.0 3.0 113 153
r 0.737563 0 2 tcp 1000 ------- 0 0.0 3.0 111 151
r 0.738363 0 2 tcp 1000 ------- 0 0.0 3.0 112 152
r 0.739163 0 2 tcp 1000 ------- 0 0.0 3.0 113 153
+ 0.745429 0 2 tcp 1000 ------- 0 0.0 3.0 114 155
- 0.745429 0 2 tcp 1000 ------- 0 0.0 3.0 114 155
+ 0.745429 0 2 tcp 1000 ------- 0 0.0 3.0 115 156
+ 0.745429 0 2 tcp 1000 ------- 0 0.0 3.0 116 157
- 0.746229 0 2 tcp 1000 ------- 0 0.0 3.0 115 156
- 0.747029 0 2 tcp 1000 ------- 0 0.0 3.0 116 157
r 0.748229 0 2 tcp 1000 ------- 0 0.0 3.0 114 155
r 0.749029 0 2 tcp 1000 ------- 0 0.0 3.0 115 156
r 0.749829 0 2 tcp 1000 ------- 0 0.0 3.0 116 157
+ 0.756096 0 2 tcp 1000 ------- 0 0.0 3.0 117 159
- 0.756096 0 2 tcp 1000 ------- 0 0.0 3.0 117 159
+ 0.756096 0 2 tcp 1000 ------- 0 0.0 3.0 118 160
- 0.756896 0 2 tcp 1000 ------- 0 0.0 3.0 118 160
r 0.758896 0 2 tcp 1000 ------- 0 0.0 3.0 117 159
r 0.759696 0 2 tcp 1000 ------- 0 0.0 3.0 118 160
+ 0.766763 0 2 tcp 1000 ------- 0 0.0 3.0 119 162
- 0.766763 0 2 tcp 1000 ------- 0 0.0 3.0 119 162
+ 0.766763 0 2 tcp 1000 ------- 0 0.0 3.0 120 163
- 0.767563 0 2 tcp 1000 ------- 0 0.0 3.0 120 163
r 0.769563 0 2 tcp 1000 ------- 0 0.0 3.0 119 162
r 0.770363 0 2 tcp 1000 ------- 0 0.0 3.0 120 163
+ 0.777429 0 2 tcp 1000 ------- 0 0.0 3.0 121 165
- 0.777429 0 2 tcp 1000 ------- 0 0.0 3.0 121 165
+ 0.777429 0 2 tcp 1000 ------- 0 0.0 3.0 122 166
- 0.778229 0 2 tcp 1000 ------- 0 0.0 3.0 122 166
r 0.780229 0 2 tcp 1000 ------- 0 0.0 3.0 121 165
r 0.781029 0 2 tcp 1000 ------- 0 0.0 3.0 122 166
+ 0.788096 0 2 tcp 1000 ------- 0 0.0 3.0 123 168
- 0.788096 0 2 tcp 1000 ------- 0 0.0 3.0 123 168
+ 0.788096 0 2 tcp 1000 ------- 0 0.0 3.0 124 169
- 0.788896 0 2 tcp 1000 ------- 0 0.0 3.0 124 169
r 0.790896 0 2 tcp 1000 ------- 0 0.0 3.0 123 168
r 0.791696 0 2 tcp 1000 ------- 0 0.0 3.0 124 169
+ 0.798763 0 2 tcp 1000 ------- 0 0.0 3.0 125 171
- 0.798763 0 2 tcp 1000 ------- 0 0.0 3.0 125 171
+ 0.798763 0 2 tcp 1000 ------- 0 0.0 3.0 126 172
- 0.799563 0 2 tcp 1000 ------- 0 0.0 3.0 126 172
r 0.801563 0 2 tcp 1000 ------- 0 0.0 3.0 125 171
r 0.802363 0 2 tcp 1000 ------- 0 0.0 3.0 126 172
+ 0.809429 0 2 tcp 1000 ------- 0 0.0 3.0 127 175
- 0.809429 0 2 tcp 1000 ------- 0 0.0 3.0 127 175
+ 0.809429 0 2 tcp 1000 ------- 0 0.0 3.0 128 176
- 0.810229 0 2 tcp 1000 ------- 0 0.0 3.0 128 176
r 0.812229 0 2 tcp 1000 ------- 0 0.0 3.0 127 175
r 0.813029 0 2 tcp 1000 ------- 0 0.0 3.0 128 176
+ 0.820096 0 2 tcp 1000 ------- 0 0.0 3.0 129 179
- 0.820096 0 2 tcp 1000 ------- 0 0.0 3.0 129 179
r 0.822896 0 2 tcp 1000 ------- 0 0.0 3.0 129 179
+ 0.836096 0 2 tcp 1000 ---A--- 0 0.0 3.0 90 183
- 0.836096 0 2 tcp 1000 ---A--- 0 0.0 3.0 90 183
r 0.838896 0 2 tcp 1000 ---A--- 0 0.0 3.0 90 183
+ 0.932096 0 2 tcp 1000 ------- 0 0.0 3.0 130 202
- 0.932096 0 2 tcp 1000 ------- 0 0.0 3.0 130 202
r 0.934896 0 2 tcp 1000 ------- 0 0.0 3.0 130 202
+ 0.937429 0 2 tcp 1000 ------- 0 0.0 3.0 131 204
- 0.937429 0 2 tcp 1000 ------- 0 0.0 3.0 131 204
r 0.940229 0 2 tcp 1000 ------- 0 0.0 3.0 131 204
+ 0.942763 0 2 tcp 1000 ------- 0 0.0 3.0 132 206
- 0.942763 0 2 tcp 1000 ------- 0 0.0 3.0 132 206
r 0.945563 0 2 tcp 1000 ------- 0 0.0 3.0 132 206
+ 0.948096 0 2 tcp 1000 ------- 0 0.0 3.0 133 208
- 0.948096 0 2 tcp 1000 ------- 0 0.0 3.0 133 208
r 0.950896 0 2 tcp 1000 ------- 0 0.0 3.0 133 208
+ 0.953429 0 2 tcp 1000 ------- 0 0.0 3.0 134 210
- 0.953429 0 2 tcp 1000 ------- 0 0.0 3.0 134 210
r 0.956229 0 2 tcp 1000 ------- 0 0.0 3.0 134 210
+ 0.958763 0 2 tcp 1000 ------- 0 0.0 3.0 135 212
- 0.958763 0 2 tcp 1000 ------- 0 0.0 3.0 135 212
r 0.961563 0 2 tcp 1000 ------- 0 0.0 3.0 135 212
+ 0.964096 0 2 tcp 1000 ------- 0 0.0 3.0 136 214
- 0.964096 0 2 tcp 1000 ------- 0 0.0 3.0 136 214
r 0.966896 0 2 tcp 1000 ------- 0 0.0 3.0 136 214
+ 0.969429 0 2 tcp 1000 ------- 0 0.0 3.0 137 216
- 0.969429 0 2 tcp 1000 ------- 0 0.0 3.0 137 216
r 0.972229 0 2 tcp 1000 ------- 0 0.0 3.0 137 216
+ 0.974763 0 2 tcp 1000 ------- 0 0.0 3.0 138 218
- 0.974763 0 2 tcp 1000 ------- 0 0.0 3.0 138 218
r 0.977563 0 2 tcp 1000 ------- 0 0.0 3.0 138 218
+ 0.980096 0 2 tcp 1000 ------- 0 0.0 3.0 139 220
- 0.980096 0 2 tcp 1000 ------- 0 0.0 3.0 139 220
r 0.982896 0 2 tcp 1000 ------- 0 0.0 3.0 139 220
+ 0.985429 0 2 tcp 1000 ------- 0 0.0 3.0 140 222
- 0.985429 0 2 tcp 1000 ------- 0 0.0 3.0 140 222
r 0.988229 0 2 tcp 1000 ------- 0 0.0 3.0 140 222
+ 0.990763 0 2 tcp 1000 ------- 0 0.0 3.0 141 224
- 0.990763 0 2 tcp 1000 ------- 0 0.0 3.0 141 224
r 0.993563 0 2 tcp 1000 ------- 0 0.0 3.0 141 224
+ 0.996096 0 2 tcp 1000 ------- 0 0.0 3.0 142 226
- 0.996096 0 2 tcp 1000 ------- 0 0.0 3.0 142 226
r 0.998896 0 2 tcp 1000 ------- 0 0.0 3.0 142 226
+ 1.001429 0 2 tcp 1000 ------- 0 0.0 3.0 143 228
- 1.001429 0 2 tcp 1000 ------- 0 0.0 3.0 143 228
r 1.004229 0 2 tcp 1000 ------- 0 0.0 3.0 143 228
+ 1.006763 0 2 tcp 1000 ------- 0 0.0 3.0 144 230
- 1.006763 0 2 tcp 1000 ------- 0 0.0 3.0 144 230
r 1.009563 0 2 tcp 1000 ------- 0 0.0 3.0 144 230
+ 1.012096 0 2 tcp 1000 ------- 0 0.0 3.0 145 232
- 1.012096 0 2 tcp 1000 ------- 0 0.0 3.0 145 232
r 1.014896 0 2 tcp 1000 ------- 0 0.0 3.0 145 232
+ 1.017429 0 2 tcp 1000 ------- 0 0.0 3.0 146 234
- 1.017429 0 2 tcp 1000 ------- 0 0.0 3.0 146 234
r 1.020229 0 2 tcp 1000 ------- 0 0.0 3.0 146 234
